<?xml version="1.0" encoding="UTF-8"?>

<!-- generated on 2026-06-08 20:45:03 by Eclipse SUMO sumo Version v1_21_0+1815-57e42d61b7c
<sumoConfiguration xmlns:xsi="http://www.w3.org/2001/XMLSchema-instance" xsi:noNamespaceSchemaLocation="http://sumo.dlr.de/xsd/sumoConfiguration.xsd">

    <input>
        <net-file value="faisal.net.xml"/>
        <route-files value="faisal.rou.xml"/>
    </input>

    <output>
        <fcd-output value="fcd.xml"/>
    </output>

</sumoConfiguration>
-->

<fcd-export xmlns:xsi="http://www.w3.org/2001/XMLSchema-instance" xsi:noNamespaceSchemaLocation="http://sumo.dlr.de/xsd/fcd_file.xsd">
    <timestep time="0.00">
        <vehicle id="0" x="2405.37" y="2150.92" angle="149.98" type="DEFAULT_VEHTYPE" speed="0.00" pos="5.10" lane="23328202#2_0" slope="0.00"/>
    </timestep>
    <timestep time="1.00">
        <vehicle id="0" x="2406.41" y="2149.12" angle="149.98" type="DEFAULT_VEHTYPE" speed="2.08" pos="7.18" lane="23328202#2_0" slope="0.00"/>
        <vehicle id="1" x="2565.46" y="1670.73" angle="238.48" type="DEFAULT_VEHTYPE" speed="0.00" pos="2.78" lane="-23636068#2_0" slope="0.00"/>
    </timestep>
    <timestep time="2.00">
        <vehicle id="0" x="2408.75" y="2145.09" angle="149.98" type="DEFAULT_VEHTYPE" speed="4.66" pos="11.84" lane="23328202#2_0" slope="0.00"/>
        <vehicle id="1" x="2563.85" y="1669.76" angle="238.41" type="DEFAULT_VEHTYPE" speed="1.88" pos="1.88" lane=":1707135894_0_0" slope="0.00"/>
        <vehicle id="2" x="2264.43" y="2028.62" angle="327.58" type="DEFAULT_VEHTYPE" speed="0.00" pos="5.10" lane="23553033#2_0" slope="0.00"/>
    </timestep>
    <timestep time="3.00">
        <vehicle id="0" x="2411.76" y="2139.87" angle="149.98" type="DEFAULT_VEHTYPE" speed="6.02" pos="17.86" lane="23328202#2_0" slope="0.00"/>
        <vehicle id="1" x="2560.85" y="1667.94" angle="238.78" type="DEFAULT_VEHTYPE" speed="3.51" pos="5.39" lane=":1707135894_0_0" slope="0.00"/>
        <vehicle id="2" x="2263.22" y="2030.51" angle="327.58" type="DEFAULT_VEHTYPE" speed="2.25" pos="7.35" lane="23553033#2_0" slope="0.00"/>
        <vehicle id="3" x="1947.73" y="1833.78" angle="240.06" type="DEFAULT_VEHTYPE" speed="0.00" pos="5.10" lane="23760035#0_0" slope="0.00"/>
    </timestep>
    <timestep time="4.00">
        <vehicle id="0" x="2415.87" y="2132.75" angle="149.98" type="DEFAULT_VEHTYPE" speed="8.22" pos="26.08" lane="23328202#2_0" slope="0.00"/>
        <vehicle id="1" x="2556.44" y="1665.27" angle="238.78" type="DEFAULT_VEHTYPE" speed="5.15" pos="10.54" lane=":1707135894_0_0" slope="0.00"/>
        <vehicle id="2" x="2260.68" y="2034.50" angle="327.48" type="DEFAULT_VEHTYPE" speed="4.72" pos="0.06" lane=":255033245_1_0" slope="0.00"/>
        <vehicle id="3" x="1945.67" y="1832.60" angle="240.06" type="DEFAULT_VEHTYPE" speed="2.38" pos="7.48" lane="23760035#0_0" slope="0.00"/>
        <vehicle id="4" x="745.81" y="2142.23" angle="58.34" type="DEFAULT_VEHTYPE" speed="0.00" pos="5.10" lane="1042686456#4_0" slope="0.00"/>
    </timestep>
    <timestep time="5.00">
        <vehicle id="0" x="2421.12" y="2123.67" angle="149.98" type="DEFAULT_VEHTYPE" speed="10.49" pos="36.57" lane="23328202#2_0" slope="0.00"/>
        <vehicle id="1" x="2550.54" y="1661.74" angle="239.25" type="DEFAULT_VEHTYPE" speed="6.88" pos="3.15" lane="-23636068#1_0" slope="0.00"/>
        <vehicle id="2" x="2256.00" y="2038.48" angle="308.13" type="DEFAULT_VEHTYPE" speed="6.27" pos="2.29" lane=":255033245_9_0" slope="0.00"/>
        <vehicle id="3" x="1941.98" y="1830.47" angle="240.06" type="DEFAULT_VEHTYPE" speed="4.27" pos="11.74" lane="23760035#0_0" slope="0.00"/>
        <vehicle id="4" x="746.92" y="2142.91" angle="58.34" type="DEFAULT_VEHTYPE" speed="1.30" pos="6.40" lane="1042686456#4_0" slope="0.00"/>
        <vehicle id="5" x="2370.91" y="1584.57" angle="162.61" type="DEFAULT_VEHTYPE" speed="0.00" pos="5.10" lane="-23553074#0_0" slope="0.00"/>
    </timestep>
    <timestep time="6.00">
        <vehicle id="0" x="2427.19" y="2113.16" angle="149.98" type="DEFAULT_VEHTYPE" speed="12.14" pos="48.71" lane="23328202#2_0" slope="0.00"/>
        <vehicle id="1" x="2543.12" y="1657.37" angle="239.53" type="DEFAULT_VEHTYPE" speed="8.61" pos="11.75" lane="-23636068#1_0" slope="0.00"/>
        <vehicle id="2" x="2249.21" y="2037.51" angle="254.80" type="DEFAULT_VEHTYPE" speed="7.12" pos="9.41" lane=":255033245_9_0" slope="0.00"/>
        <vehicle id="3" x="1936.49" y="1827.31" angle="240.06" type="DEFAULT_VEHTYPE" speed="6.34" pos="18.08" lane="23760035#0_0" slope="0.00"/>
        <vehicle id="4" x="749.44" y="2144.47" angle="58.34" type="DEFAULT_VEHTYPE" speed="2.96" pos="9.37" lane="1042686456#4_0" slope="0.00"/>
        <vehicle id="5" x="2371.62" y="1582.55" angle="161.81" type="DEFAULT_VEHTYPE" speed="2.14" pos="7.24" lane="-23553074#0_0" slope="0.00"/>
        <vehicle id="6" x="685.13" y="1760.48" angle="149.78" type="DEFAULT_VEHTYPE" speed="0.00" pos="5.10" lane="-1042686457#2_0" slope="0.00"/>
    </timestep>
    <timestep time="7.00">
        <vehicle id="0" x="2434.28" y="2100.90" angle="149.98" type="DEFAULT_VEHTYPE" speed="14.16" pos="62.87" lane="23328202#2_0" slope="0.00"/>
        <vehicle id="1" x="2534.41" y="1652.25" angle="239.53" type="DEFAULT_VEHTYPE" speed="10.11" pos="21.86" lane="-23636068#1_0" slope="0.00"/>
        <vehicle id="2" x="2242.40" y="2033.48" angle="238.63" type="DEFAULT_VEHTYPE" speed="7.92" pos="7.15" lane="-23553027#1_0" slope="0.00"/>
        <vehicle id="3" x="1929.69" y="1823.40" angle="240.10" type="DEFAULT_VEHTYPE" speed="7.84" pos="0.39" lane=":256543090_0_0" slope="0.00"/>
        <vehicle id="4" x="753.64" y="2147.05" angle="58.34" type="DEFAULT_VEHTYPE" speed="4.93" pos="14.30" lane="1042686456#4_0" slope="0.00"/>
        <vehicle id="5" x="2372.89" y="1579.23" angle="159.35" type="DEFAULT_VEHTYPE" speed="3.55" pos="10.79" lane="-23553074#0_0" slope="0.00"/>
        <vehicle id="6" x="685.97" y="1759.04" angle="149.78" type="DEFAULT_VEHTYPE" speed="1.67" pos="6.77" lane="-1042686457#2_0" slope="0.00"/>
    </timestep>
    <timestep time="8.00">
        <vehicle id="0" x="2439.11" y="2092.54" angle="149.98" type="DEFAULT_VEHTYPE" speed="9.66" pos="72.52" lane="23328202#2_0" slope="0.00"/>
        <vehicle id="1" x="2523.46" y="1645.81" angle="239.53" type="DEFAULT_VEHTYPE" speed="12.70" pos="34.56" lane="-23636068#1_0" slope="0.00"/>
        <vehicle id="2" x="2234.14" y="2028.44" angle="238.63" type="DEFAULT_VEHTYPE" speed="9.68" pos="16.84" lane="-23553027#1_0" slope="0.00"/>
        <vehicle id="3" x="1921.36" y="1818.69" angle="240.52" type="DEFAULT_VEHTYPE" speed="9.56" pos="9.95" lane=":256543090_0_0" slope="0.00"/>
        <vehicle id="4" x="759.46" y="2150.64" angle="58.34" type="DEFAULT_VEHTYPE" speed="6.84" pos="21.14" lane="1042686456#4_0" slope="0.00"/>
        <vehicle id="5" x="2374.70" y="1574.48" angle="159.15" type="DEFAULT_VEHTYPE" speed="5.09" pos="15.88" lane="-23553074#0_0" slope="0.00"/>
        <vehicle id="6" x="687.75" y="1755.97" angle="149.78" type="DEFAULT_VEHTYPE" speed="3.56" pos="10.32" lane="-1042686457#2_0" slope="0.00"/>
        <vehicle id="8" x="2352.91" y="1702.19" angle="157.28" type="DEFAULT_VEHTYPE" speed="0.00" pos="5.10" lane="-23553074#2_0" slope="0.00"/>
    </timestep>
    <timestep time="9.00">
        <vehicle id="0" x="2441.73" y="2088.00" angle="149.98" type="DEFAULT_VEHTYPE" speed="5.24" pos="77.77" lane="23328202#2_0" slope="0.00"/>
        <vehicle id="1" x="2512.47" y="1639.18" angle="238.83" type="DEFAULT_VEHTYPE" speed="12.83" pos="10.98" lane=":1707135869_0_0" slope="0.00"/>
        <vehicle id="2" x="2223.75" y="2022.10" angle="238.63" type="DEFAULT_VEHTYPE" speed="12.16" pos="29.00" lane="-23553027#1_0" slope="0.00"/>
        <vehicle id="3" x="1911.10" y="1812.97" angle="241.03" type="DEFAULT_VEHTYPE" speed="11.75" pos="7.38" lane="23760035#1_0" slope="0.00"/>
        <vehicle id="4" x="767.38" y="2155.53" angle="58.34" type="DEFAULT_VEHTYPE" speed="9.31" pos="30.44" lane="1042686456#4_0" slope="0.00"/>
        <vehicle id="5" x="2377.09" y="1568.21" angle="159.15" type="DEFAULT_VEHTYPE" speed="6.71" pos="22.59" lane="-23553074#0_0" slope="0.00"/>
        <vehicle id="6" x="690.48" y="1751.30" angle="149.78" type="DEFAULT_VEHTYPE" speed="5.41" pos="15.73" lane="-1042686457#2_0" slope="0.00"/>
        <vehicle id="8" x="2353.57" y="1699.73" angle="161.80" type="DEFAULT_VEHTYPE" speed="2.55" pos="7.65" lane="-23553074#2_0" slope="0.00"/>
        <vehicle id="9" x="2314.44" y="1937.44" angle="170.78" type="DEFAULT_VEHTYPE" speed="0.00" pos="5.10" lane="23691516#0_0" slope="0.00"/>
    </timestep>
    <timestep time="10.00">
        <vehicle id="0" x="2445.54" y="2081.48" angle="149.59" type="DEFAULT_VEHTYPE" speed="7.50" pos="4.57" lane=":252609448_2_0" slope="0.00"/>
        <vehicle id="1" x="2501.88" y="1632.64" angle="238.09" type="DEFAULT_VEHTYPE" speed="12.45" pos="8.91" lane="-23636068#0_0" slope="0.00"/>
        <vehicle id="10" x="2569.51" y="1669.48" angle="58.34" type="DEFAULT_VEHTYPE" speed="0.00" pos="2.78" lane="23636068#2_0" slope="0.00"/>
        <vehicle id="2" x="2212.32" y="2015.13" angle="238.63" type="DEFAULT_VEHTYPE" speed="13.39" pos="42.39" lane="-23553027#1_0" slope="0.00"/>
        <vehicle id="3" x="1901.33" y="1807.55" angle="241.03" type="DEFAULT_VEHTYPE" speed="11.17" pos="18.56" lane="23760035#1_0" slope="0.00"/>
        <vehicle id="4" x="776.62" y="2161.22" angle="58.34" type="DEFAULT_VEHTYPE" speed="10.85" pos="41.29" lane="1042686456#4_0" slope="0.00"/>
        <vehicle id="5" x="2379.48" y="1564.24" angle="149.55" type="DEFAULT_VEHTYPE" speed="4.65" pos="27.24" lane="-23553074#0_0" slope="0.00"/>
        <vehicle id="6" x="693.94" y="1745.35" angle="149.78" type="DEFAULT_VEHTYPE" speed="6.88" pos="22.61" lane="-1042686457#2_0" slope="0.00"/>
        <vehicle id="8" x="2354.80" y="1695.13" angle="165.05" type="DEFAULT_VEHTYPE" speed="4.76" pos="12.41" lane="-23553074#2_0" slope="0.00"/>
        <vehicle id="9" x="2314.66" y="1936.08" angle="170.78" type="DEFAULT_VEHTYPE" speed="1.38" pos="6.48" lane="23691516#0_0" slope="0.00"/>
    </timestep>
    <timestep time="11.00">
        <vehicle id="0" x="2450.94" y="2073.61" angle="144.34" type="DEFAULT_VEHTYPE" speed="9.44" pos="14.00" lane=":252609448_2_0" slope="0.00"/>
        <vehicle id="1" x="2491.65" y="1626.27" angle="238.09" type="DEFAULT_VEHTYPE" speed="12.04" pos="20.96" lane="-23636068#0_0" slope="0.00"/>
        <vehicle id="10" x="2570.66" y="1670.17" angle="58.38" type="DEFAULT_VEHTYPE" speed="1.34" pos="1.34" lane=":255033424_1_0" slope="0.00"/>
        <vehicle id="11" x="2048.46" y="2328.89" angle="219.90" type="DEFAULT_VEHTYPE" speed="0.00" pos="5.10" lane="-23759450#2_0" slope="0.00"/>
        <vehicle id="2" x="2200.48" y="2007.91" angle="238.63" type="DEFAULT_VEHTYPE" speed="13.87" pos="56.25" lane="-23553027#1_0" slope="0.00"/>
        <vehicle id="3" x="1895.49" y="1804.29" angle="240.79" type="DEFAULT_VEHTYPE" speed="6.70" pos="0.14" lane=":256543133_1_0" slope="0.00"/>
        <vehicle id="4" x="787.75" y="2168.08" angle="58.34" type="DEFAULT_VEHTYPE" speed="13.07" pos="54.36" lane="1042686456#4_0" slope="0.00"/>
        <vehicle id="5" x="2381.26" y="1562.55" angle="140.16" type="DEFAULT_VEHTYPE" speed="2.55" pos="0.99" lane=":252608261_15_0" slope="0.00"/>
        <vehicle id="6" x="698.65" y="1737.26" angle="149.78" type="DEFAULT_VEHTYPE" speed="9.36" pos="31.97" lane="-1042686457#2_0" slope="0.00"/>
        <vehicle id="8" x="2356.65" y="1688.20" angle="165.05" type="DEFAULT_VEHTYPE" speed="7.17" pos="19.58" lane="-23553074#2_0" slope="0.00"/>
        <vehicle id="9" x="2315.11" y="1932.22" angle="172.80" type="DEFAULT_VEHTYPE" speed="3.90" pos="3.13" lane=":256543029_5_0" slope="0.00"/>
    </timestep>
    <timestep time="12.00">
        <vehicle id="0" x="2453.86" y="2068.20" angle="153.66" type="DEFAULT_VEHTYPE" speed="6.23" pos="3.81" lane=":252609449_0_0" slope="0.00"/>
        <vehicle id="1" x="2483.22" y="1621.02" angle="238.09" type="DEFAULT_VEHTYPE" speed="9.93" pos="30.89" lane="-23636068#0_0" slope="0.00"/>
        <vehicle id="10" x="2573.25" y="1671.74" angle="58.81" type="DEFAULT_VEHTYPE" speed="3.03" pos="4.37" lane=":255033424_1_0" slope="0.00"/>
        <vehicle id="11" x="2047.54" y="2327.79" angle="219.90" type="DEFAULT_VEHTYPE" speed="1.43" pos="6.53" lane="-23759450#2_0" slope="0.00"/>
        <vehicle id="12" x="1942.10" y="1728.27" angle="238.71" type="DEFAULT_VEHTYPE" speed="0.00" pos="5.10" lane="730464139#1_0" slope="0.00"/>
        <vehicle id="2" x="2191.13" y="2002.21" angle="238.63" type="DEFAULT_VEHTYPE" speed="10.95" pos="67.21" lane="-23553027#1_0" slope="0.00"/>
        <vehicle id="3" x="1890.86" y="1798.00" angle="205.38" type="DEFAULT_VEHTYPE" speed="8.22" pos="4.10" lane=":256543133_9_0" slope="0.00"/>
        <vehicle id="4" x="799.09" y="2175.08" angle="58.36" type="DEFAULT_VEHTYPE" speed="13.33" pos="7.58" lane=":247946108_6_0" slope="0.00"/>
        <vehicle id="5" x="2382.98" y="1563.21" angle="108.93" type="DEFAULT_VEHTYPE" speed="2.18" pos="3.18" lane=":252608261_15_0" slope="0.00"/>
        <vehicle id="6" x="704.32" y="1727.53" angle="149.78" type="DEFAULT_VEHTYPE" speed="11.26" pos="43.24" lane="-1042686457#2_0" slope="0.00"/>
        <vehicle id="8" x="2357.15" y="1683.69" angle="172.94" type="DEFAULT_VEHTYPE" speed="4.57" pos="24.15" lane="-23553074#2_0" slope="0.00"/>
        <vehicle id="9" x="2314.20" y="1926.83" angle="190.63" type="DEFAULT_VEHTYPE" speed="5.49" pos="0.94" lane="23691516#1_0" slope="0.00"/>
    </timestep>
    <timestep time="13.00">
        <vehicle id="0" x="2450.79" y="2063.91" angle="221.25" type="DEFAULT_VEHTYPE" speed="5.72" pos="1.37" lane=":252608892_1_0" slope="0.00"/>
        <vehicle id="1" x="2478.55" y="1618.11" angle="238.09" type="DEFAULT_VEHTYPE" speed="5.50" pos="36.40" lane="-23636068#0_0" slope="0.00"/>
        <vehicle id="10" x="2577.32" y="1674.10" angle="59.77" type="DEFAULT_VEHTYPE" speed="4.71" pos="4.23" lane="23636068#3_0" slope="0.00"/>
        <vehicle id="11" x="2044.95" y="2324.69" angle="219.90" type="DEFAULT_VEHTYPE" speed="4.03" pos="10.57" lane="-23759450#2_0" slope="0.00"/>
        <vehicle id="12" x="1940.95" y="1727.57" angle="238.71" type="DEFAULT_VEHTYPE" speed="1.34" pos="6.44" lane="730464139#1_0" slope="0.00"/>
        <vehicle id="13" x="1346.35" y="1147.74" angle="239.92" type="DEFAULT_VEHTYPE" speed="0.00" pos="5.10" lane="-23325923#1_0" slope="0.00"/>
        <vehicle id="2" x="2185.22" y="1998.61" angle="238.63" type="DEFAULT_VEHTYPE" speed="6.92" pos="74.12" lane="-23553027#1_0" slope="0.00"/>
        <vehicle id="3" x="1893.28" y="1790.76" angle="154.46" type="DEFAULT_VEHTYPE" speed="7.79" pos="1.85" lane="-23691528_0" slope="0.00"/>
        <vehicle id="4" x="810.85" y="2182.32" angle="58.33" type="DEFAULT_VEHTYPE" speed="13.80" pos="0.63" lane="1042686456#6_0" slope="0.00"/>
        <vehicle id="5" x="2382.55" y="1565.41" angle="33.08" type="DEFAULT_VEHTYPE" speed="2.34" pos="0.85" lane="23553074#0_0" slope="0.00"/>
        <vehicle id="6" x="711.30" y="1715.56" angle="149.78" type="DEFAULT_VEHTYPE" speed="13.86" pos="57.09" lane="-1042686457#2_0" slope="0.00"/>
        <vehicle id="8" x="2358.56" y="1681.75" angle="161.95" type="DEFAULT_VEHTYPE" speed="2.55" pos="0.67" lane=":255033471_11_0" slope="0.00"/>
        <vehicle id="9" x="2312.50" y="1919.21" angle="192.53" type="DEFAULT_VEHTYPE" speed="7.81" pos="8.75" lane="23691516#1_0" slope="0.00"/>
    </timestep>
    <timestep time="14.00">
        <vehicle id="0" x="2443.96" y="2060.31" angle="244.42" type="DEFAULT_VEHTYPE" speed="7.92" pos="9.29" lane=":252608892_1_0" slope="0.00"/>
        <vehicle id="1" x="2473.54" y="1613.96" angle="227.87" type="DEFAULT_VEHTYPE" speed="6.58" pos="4.56" lane=":252608262_2_0" slope="0.00"/>
        <vehicle id="10" x="2582.65" y="1677.18" angle="59.93" type="DEFAULT_VEHTYPE" speed="6.15" pos="10.38" lane="23636068#3_0" slope="0.00"/>
        <vehicle id="11" x="2040.13" y="2320.79" angle="231.15" type="DEFAULT_VEHTYPE" speed="6.21" pos="16.77" lane="-23759450#2_0" slope="0.00"/>
        <vehicle id="12" x="1938.05" y="1725.81" angle="238.71" type="DEFAULT_VEHTYPE" speed="3.40" pos="9.84" lane="730464139#1_0" slope="0.00"/>
        <vehicle id="13" x="1344.51" y="1146.68" angle="239.92" type="DEFAULT_VEHTYPE" speed="2.13" pos="7.23" lane="-23325923#1_0" slope="0.00"/>
        <vehicle id="14" x="1667.30" y="2260.02" angle="328.37" type="DEFAULT_VEHTYPE" speed="0.00" pos="5.10" lane="23758999#2_0" slope="0.00"/>
        <vehicle id="2" x="2182.31" y="1996.41" angle="234.41" type="DEFAULT_VEHTYPE" speed="3.66" pos="2.55" lane=":255033178_1_0" slope="0.00"/>
        <vehicle id="3" x="1897.94" y="1782.92" angle="149.32" type="DEFAULT_VEHTYPE" speed="9.12" pos="10.97" lane="-23691528_0" slope="0.00"/>
        <vehicle id="4" x="822.09" y="2189.26" angle="58.31" type="DEFAULT_VEHTYPE" speed="13.21" pos="13.84" lane="1042686456#6_0" slope="0.00"/>
        <vehicle id="5" x="2380.01" y="1569.52" angle="328.17" type="DEFAULT_VEHTYPE" speed="4.85" pos="5.69" lane="23553074#0_0" slope="0.00"/>
        <vehicle id="6" x="718.56" y="1703.08" angle="149.78" type="DEFAULT_VEHTYPE" speed="14.44" pos="71.53" lane="-1042686457#2_0" slope="0.00"/>
        <vehicle id="8" x="2360.14" y="1682.95" angle="108.36" type="DEFAULT_VEHTYPE" speed="2.18" pos="2.85" lane=":255033471_11_0" slope="0.00"/>
        <vehicle id="9" x="2310.27" y="1909.18" angle="192.53" type="DEFAULT_VEHTYPE" speed="10.27" pos="19.02" lane="23691516#1_0" slope="0.00"/>
    </timestep>
    <timestep time="15.00">
        <vehicle id="0" x="2434.90" y="2056.45" angle="245.28" type="DEFAULT_VEHTYPE" speed="9.94" pos="5.56" lane="23328106#1_0" slope="0.00"/>
        <vehicle id="1" x="2472.76" y="1607.28" angle="177.96" type="DEFAULT_VEHTYPE" speed="7.05" pos="11.62" lane=":252608262_2_0" slope="0.00"/>
        <vehicle id="10" x="2589.42" y="1681.10" angle="59.93" type="DEFAULT_VEHTYPE" speed="7.82" pos="18.21" lane="23636068#3_0" slope="0.00"/>
        <vehicle id="11" x="2033.40" y="2315.37" angle="231.18" type="DEFAULT_VEHTYPE" speed="8.63" pos="0.37" lane=":257421339_0_0" slope="0.00"/>
        <vehicle id="12" x="1933.78" y="1723.21" angle="238.71" type="DEFAULT_VEHTYPE" speed="5.00" pos="14.84" lane="730464139#1_0" slope="0.00"/>
        <vehicle id="13" x="1341.14" y="1144.73" angle="239.92" type="DEFAULT_VEHTYPE" speed="3.89" pos="11.12" lane="-23325923#1_0" slope="0.00"/>
        <vehicle id="14" x="1666.18" y="2261.83" angle="328.37" type="DEFAULT_VEHTYPE" speed="2.12" pos="7.22" lane="23758999#2_0" slope="0.00"/>
        <vehicle id="15" x="2578.07" y="1674.54" angle="59.93" type="DEFAULT_VEHTYPE" speed="0.00" pos="5.10" lane="23636068#3_0" slope="0.00"/>
        <vehicle id="2" x="2179.79" y="1991.58" angle="204.43" type="DEFAULT_VEHTYPE" speed="5.68" pos="4.21" lane=":255033178_9_0" slope="0.00"/>
        <vehicle id="3" x="1903.87" y="1772.91" angle="149.32" type="DEFAULT_VEHTYPE" speed="11.64" pos="22.60" lane="-23691528_0" slope="0.00"/>
        <vehicle id="4" x="833.79" y="2196.49" angle="58.31" type="DEFAULT_VEHTYPE" speed="13.76" pos="27.60" lane="1042686456#6_0" slope="0.00"/>
        <vehicle id="5" x="2377.52" y="1576.06" angle="339.18" type="DEFAULT_VEHTYPE" speed="7.00" pos="12.69" lane="23553074#0_0" slope="0.00"/>
        <vehicle id="6" x="725.38" y="1691.37" angle="149.78" type="DEFAULT_VEHTYPE" speed="13.55" pos="85.08" lane="-1042686457#2_0" slope="0.00"/>
        <vehicle id="8" x="2360.33" y="1685.17" angle="35.38" type="DEFAULT_VEHTYPE" speed="2.28" pos="1.90" lane="23553074#2_0" slope="0.00"/>
        <vehicle id="9" x="2307.75" y="1897.44" angle="191.73" type="DEFAULT_VEHTYPE" speed="12.00" pos="6.04" lane=":256545467_0_0" slope="0.00"/>
    </timestep>
    <timestep time="16.00">
        <vehicle id="0" x="2424.17" y="2050.35" angle="239.78" type="DEFAULT_VEHTYPE" speed="12.29" pos="17.84" lane="23328106#1_0" slope="0.00"/>
        <vehicle id="1" x="2476.20" y="1600.70" angle="150.00" type="DEFAULT_VEHTYPE" speed="7.44" pos="4.68" lane="23636057#0_0" slope="0.00"/>
        <vehicle id="10" x="2598.39" y="1686.30" angle="59.93" type="DEFAULT_VEHTYPE" speed="10.36" pos="28.57" lane="23636068#3_0" slope="0.00"/>
        <vehicle id="11" x="2024.89" y="2308.61" angle="231.53" type="DEFAULT_VEHTYPE" speed="10.88" pos="11.25" lane=":257421339_0_0" slope="0.00"/>
        <vehicle id="12" x="1927.92" y="1719.65" angle="238.71" type="DEFAULT_VEHTYPE" speed="6.86" pos="21.69" lane="730464139#1_0" slope="0.00"/>
        <vehicle id="13" x="1335.76" y="1141.61" angle="239.92" type="DEFAULT_VEHTYPE" speed="6.22" pos="17.34" lane="-23325923#1_0" slope="0.00"/>
        <vehicle id="14" x="1663.80" y="2265.70" angle="328.37" type="DEFAULT_VEHTYPE" speed="4.55" pos="11.77" lane="23758999#2_0" slope="0.00"/>
        <vehicle id="15" x="2579.77" y="1675.52" angle="59.93" type="DEFAULT_VEHTYPE" speed="1.96" pos="7.06" lane="23636068#3_0" slope="0.00"/>
        <vehicle id="16" x="455.31" y="1538.19" angle="58.39" type="DEFAULT_VEHTYPE" speed="0.00" pos="5.10" lane="21059669#0_0" slope="0.00"/>
        <vehicle id="2" x="2182.40" y="1984.09" angle="153.85" type="DEFAULT_VEHTYPE" speed="8.09" pos="2.14" lane="23553029#0_0" slope="0.00"/>
        <vehicle id="3" x="1910.87" y="1761.13" angle="149.32" type="DEFAULT_VEHTYPE" speed="13.71" pos="36.31" lane="-23691528_0" slope="0.00"/>
        <vehicle id="4" x="845.32" y="2203.61" angle="58.31" type="DEFAULT_VEHTYPE" speed="13.55" pos="41.15" lane="1042686456#6_0" slope="0.00"/>
        <vehicle id="5" x="2374.54" y="1583.89" angle="339.18" type="DEFAULT_VEHTYPE" speed="8.38" pos="21.07" lane="23553074#0_0" slope="0.00"/>
        <vehicle id="6" x="732.47" y="1679.19" angle="149.78" type="DEFAULT_VEHTYPE" speed="14.09" pos="99.18" lane="-1042686457#2_0" slope="0.00"/>
        <vehicle id="8" x="2359.80" y="1688.78" angle="353.67" type="DEFAULT_VEHTYPE" speed="3.68" pos="5.58" lane="23553074#2_0" slope="0.00"/>
        <vehicle id="9" x="2305.39" y="1885.50" angle="190.94" type="DEFAULT_VEHTYPE" speed="12.18" pos="8.68" lane="23691516#2_0" slope="0.00"/>
    </timestep>
    <timestep time="17.00">
        <vehicle id="0" x="2412.50" y="2041.64" angle="235.55" type="DEFAULT_VEHTYPE" speed="14.50" pos="32.34" lane="23328106#1_0" slope="0.00"/>
        <vehicle id="1" x="2480.90" y="1592.71" angle="149.49" type="DEFAULT_VEHTYPE" speed="9.27" pos="13.95" lane="23636057#0_0" slope="0.00"/>
        <vehicle id="10" x="2603.74" y="1689.40" angle="59.93" type="DEFAULT_VEHTYPE" speed="6.18" pos="34.75" lane="23636068#3_0" slope="0.00"/>
        <vehicle id="11" x="2014.89" y="2300.72" angle="231.79" type="DEFAULT_VEHTYPE" speed="12.74" pos="9.61" lane="-23759450#1_0" slope="0.00"/>
        <vehicle id="12" x="1919.89" y="1714.78" angle="238.71" type="DEFAULT_VEHTYPE" speed="9.39" pos="31.08" lane="730464139#1_0" slope="0.00"/>
        <vehicle id="13" x="1328.14" y="1137.20" angle="239.92" type="DEFAULT_VEHTYPE" speed="8.80" pos="26.14" lane="-23325923#1_0" slope="0.00"/>
        <vehicle id="14" x="1660.45" y="2271.13" angle="328.37" type="DEFAULT_VEHTYPE" speed="6.38" pos="18.15" lane="23758999#2_0" slope="0.00"/>
        <vehicle id="15" x="2583.67" y="1677.78" angle="59.93" type="DEFAULT_VEHTYPE" speed="4.50" pos="11.57" lane="23636068#3_0" slope="0.00"/>
        <vehicle id="16" x="456.73" y="1539.07" angle="58.39" type="DEFAULT_VEHTYPE" speed="1.67" pos="6.77" lane="21059669#0_0" slope="0.00"/>
        <vehicle id="17" x="2455.87" y="1393.85" angle="239.45" type="DEFAULT_VEHTYPE" speed="0.00" pos="5.10" lane="-307558360#3_0" slope="0.00"/>
        <vehicle id="2" x="2187.61" y="1975.33" angle="149.22" type="DEFAULT_VEHTYPE" speed="10.19" pos="12.33" lane="23553029#0_0" slope="0.00"/>
        <vehicle id="3" x="1917.08" y="1750.65" angle="149.32" type="DEFAULT_VEHTYPE" speed="12.19" pos="48.50" lane="-23691528_0" slope="0.00"/>
        <vehicle id="4" x="856.81" y="2210.70" angle="58.34" type="DEFAULT_VEHTYPE" speed="13.50" pos="6.53" lane=":247946477_6_0" slope="0.00"/>
        <vehicle id="5" x="2371.34" y="1594.17" angle="343.49" type="DEFAULT_VEHTYPE" speed="10.76" pos="3.93" lane=":252608796_4_0" slope="0.00"/>
        <vehicle id="6" x="739.45" y="1667.21" angle="149.78" type="DEFAULT_VEHTYPE" speed="13.86" pos="113.04" lane="-1042686457#2_0" slope="0.00"/>
        <vehicle id="8" x="2358.32" y="1694.31" angle="345.07" type="DEFAULT_VEHTYPE" speed="5.72" pos="11.30" lane="23553074#2_0" slope="0.00"/>
        <vehicle id="9" x="2303.16" y="1873.93" angle="190.94" type="DEFAULT_VEHTYPE" speed="11.78" pos="20.47" lane="23691516#2_0" slope="0.00"/>
    </timestep>
    <timestep time="18.00">
        <vehicle id="0" x="2399.65" y="2032.25" angle="229.99" type="DEFAULT_VEHTYPE" speed="15.86" pos="48.20" lane="23328106#1_0" slope="0.00"/>
        <vehicle id="1" x="2486.39" y="1583.44" angle="149.36" type="DEFAULT_VEHTYPE" speed="10.78" pos="6.80" lane=":256050120_7_0" slope="0.00"/>
        <vehicle id="10" x="2608.15" y="1690.66" angle="73.10" type="DEFAULT_VEHTYPE" speed="4.69" pos="3.92" lane=":252608263_6_0" slope="0.00"/>
        <vehicle id="11" x="2003.56" y="2291.53" angle="230.95" type="DEFAULT_VEHTYPE" speed="14.58" pos="24.19" lane="-23759450#1_0" slope="0.00"/>
        <vehicle id="12" x="1910.37" y="1708.99" angle="238.71" type="DEFAULT_VEHTYPE" speed="11.15" pos="42.23" lane="730464139#1_0" slope="0.00"/>
        <vehicle id="14" x="1656.00" y="2278.36" angle="328.37" type="DEFAULT_VEHTYPE" speed="8.49" pos="26.64" lane="23758999#2_0" slope="0.00"/>
        <vehicle id="15" x="2589.54" y="1681.17" angle="59.93" type="DEFAULT_VEHTYPE" speed="6.78" pos="18.35" lane="23636068#3_0" slope="0.00"/>
        <vehicle id="16" x="460.16" y="1541.18" angle="58.39" type="DEFAULT_VEHTYPE" speed="4.03" pos="10.80" lane="21059669#0_0" slope="0.00"/>
        <vehicle id="17" x="2454.15" y="1392.84" angle="239.45" type="DEFAULT_VEHTYPE" speed="1.99" pos="7.09" lane="-307558360#3_0" slope="0.00"/>
        <vehicle id="18" x="1513.66" y="2320.10" angle="236.79" type="DEFAULT_VEHTYPE" speed="0.00" pos="5.10" lane="23691567#2_0" slope="0.00"/>
        <vehicle id="2" x="2191.66" y="1968.53" angle="149.22" type="DEFAULT_VEHTYPE" speed="7.92" pos="20.25" lane="23553029#0_0" slope="0.00"/>
        <vehicle id="3" x="1921.41" y="1743.36" angle="149.32" type="DEFAULT_VEHTYPE" speed="8.47" pos="56.97" lane="-23691528_0" slope="0.00"/>
        <vehicle id="4" x="868.35" y="2217.72" angle="58.83" type="DEFAULT_VEHTYPE" speed="13.52" pos="9.06" lane=":247945449_3_0" slope="0.00"/>
        <vehicle id="5" x="2368.86" y="1605.30" angle="348.56" type="DEFAULT_VEHTYPE" speed="11.41" pos="0.39" lane="23553074#1_0" slope="0.00"/>
        <vehicle id="6" x="746.67" y="1654.82" angle="149.78" type="DEFAULT_VEHTYPE" speed="14.34" pos="127.38" lane="-1042686457#2_0" slope="0.00"/>
        <vehicle id="8" x="2356.43" y="1701.42" angle="345.07" type="DEFAULT_VEHTYPE" speed="7.36" pos="18.66" lane="23553074#2_0" slope="0.00"/>
        <vehicle id="9" x="2300.79" y="1862.24" angle="192.14" type="DEFAULT_VEHTYPE" speed="11.93" pos="3.16" lane=":256545463_0_0" slope="0.00"/>
    </timestep>
    <timestep time="19.00">
        <vehicle id="0" x="2386.33" y="2019.72" angle="225.65" type="DEFAULT_VEHTYPE" speed="18.20" pos="66.40" lane="23328106#1_0" slope="0.00"/>
        <vehicle id="1" x="2493.02" y="1572.28" angle="149.12" type="DEFAULT_VEHTYPE" speed="12.99" pos="2.17" lane=":256047776_6_0" slope="0.00"/>
        <vehicle id="10" x="2612.22" y="1687.65" angle="128.39" type="DEFAULT_VEHTYPE" speed="5.27" pos="0.04" lane="23328077#0_0" slope="0.00"/>
        <vehicle id="11" x="1991.41" y="2283.65" angle="238.67" type="DEFAULT_VEHTYPE" speed="14.50" pos="8.98" lane="-23759450#0_0" slope="0.00"/>
        <vehicle id="12" x="1899.33" y="1702.28" angle="238.71" type="DEFAULT_VEHTYPE" speed="12.92" pos="55.15" lane="730464139#1_0" slope="0.00"/>
        <vehicle id="14" x="1650.26" y="2287.69" angle="328.37" type="DEFAULT_VEHTYPE" speed="10.96" pos="37.60" lane="23758999#2_0" slope="0.00"/>
        <vehicle id="15" x="2596.80" y="1685.38" angle="59.93" type="DEFAULT_VEHTYPE" speed="8.39" pos="26.73" lane="23636068#3_0" slope="0.00"/>
        <vehicle id="16" x="465.79" y="1544.64" angle="58.39" type="DEFAULT_VEHTYPE" speed="6.61" pos="17.40" lane="21059669#0_0" slope="0.00"/>
        <vehicle id="17" x="2450.85" y="1390.88" angle="239.45" type="DEFAULT_VEHTYPE" speed="3.84" pos="10.93" lane="-307558360#3_0" slope="0.00"/>
        <vehicle id="18" x="1512.49" y="2319.33" angle="236.79" type="DEFAULT_VEHTYPE" speed="1.40" pos="6.50" lane="23691567#2_0" slope="0.00"/>
        <vehicle id="19" x="1757.62" y="1913.34" angle="238.53" type="DEFAULT_VEHTYPE" speed="0.00" pos="5.10" lane="23759160#1_0" slope="0.00"/>
        <vehicle id="2" x="2194.06" y="1964.50" angle="149.22" type="DEFAULT_VEHTYPE" speed="4.69" pos="24.94" lane="23553029#0_0" slope="0.00"/>
        <vehicle id="3" x="1923.57" y="1739.72" angle="149.32" type="DEFAULT_VEHTYPE" speed="4.23" pos="61.20" lane="-23691528_0" slope="0.00"/>
        <vehicle id="4" x="880.49" y="2224.98" angle="59.13" type="DEFAULT_VEHTYPE" speed="14.14" pos="13.73" lane="1042686456#8_0" slope="0.00"/>
        <vehicle id="5" x="2366.85" y="1616.04" angle="349.69" type="DEFAULT_VEHTYPE" speed="10.93" pos="11.32" lane="23553074#1_0" slope="0.00"/>
        <vehicle id="6" x="753.45" y="1643.18" angle="149.78" type="DEFAULT_VEHTYPE" speed="13.47" pos="140.85" lane="-1042686457#2_0" slope="0.00"/>
        <vehicle id="8" x="2352.93" y="1710.24" angle="335.84" type="DEFAULT_VEHTYPE" speed="9.51" pos="2.27" lane=":252608802_4_0" slope="0.00"/>